
Linearized model: Predictions were generated on 02-Feb-2021 at 09:50:46 using OpenFAST, compiled as a 64-bit application using single precision at commit -128-NOTFOUND
 linked with  NWTC Subroutine Library; ElastoDyn; InflowWind; AeroDyn; ServoDyn; HydroDyn; MAP++ (<1.20.10>, <Jan-27-2021>)

Description from the FAST input file: Generated with AeroElasticSE FAST driver

Simulation information:
   Simulation time:                  2032.0250 s
   Rotor Speed:                         0.4758 rad/s
   Azimuth:                             5.7615 rad
   Wind Speed:                          7.0000 m/s
   Number of continuous states:       104
   Number of discrete states:           0
   Number of constraint states:         0
   Number of inputs:                   10
   Number of outputs:                 108
   Jacobians included in this file?    No

Order of continuous states:
   Row/Column Operating Point                     Rotating Frame? Derivative Order Description
   ---------- ---------------                     --------------- ---------------- -----------
          1    1.134E+01                                 F               2         ED Platform horizontal surge translation DOF (internal DOF index = DOF_Sg), m
          2    2.139E-02                                 F               2         ED Platform pitch tilt rotation DOF (internal DOF index = DOF_P), rad
          3    3.364E-02                                 F               2         ED 1st tower fore-aft bending mode DOF (internal DOF index = DOF_TFA1), m
          4    4.191E+00                                 F               2         ED Variable speed generator DOF (internal DOF index = DOF_GeAz), rad
          5    1.051E-03                                 F               2         ED First time derivative of Platform horizontal surge translation DOF (internal DOF index = DOF_Sg), m/s
          6    3.626E-05                                 F               2         ED First time derivative of Platform pitch tilt rotation DOF (internal DOF index = DOF_P), rad/s
          7   -1.176E-02                                 F               2         ED First time derivative of 1st tower fore-aft bending mode DOF (internal DOF index = DOF_TFA1), m/s
          8    4.758E-01                                 F               2         ED First time derivative of Variable speed generator DOF (internal DOF index = DOF_GeAz), rad/s
          9    0.000E+00                                 F               1         HD ExctnPtfmSg1
         10    0.000E+00                                 F               1         HD ExctnPtfmSg2
         11    0.000E+00                                 F               1         HD ExctnPtfmSg3
         12    0.000E+00                                 F               1         HD ExctnPtfmSg4
         13    0.000E+00                                 F               1         HD ExctnPtfmSg5
         14    0.000E+00                                 F               1         HD ExctnPtfmSg6
         15    0.000E+00                                 F               1         HD ExctnPtfmSg7
         16    0.000E+00                                 F               1         HD ExctnPtfmSg8
         17    0.000E+00                                 F               1         HD ExctnPtfmSw1
         18    0.000E+00                                 F               1         HD ExctnPtfmSw2
         19    0.000E+00                                 F               1         HD ExctnPtfmHv1
         20    0.000E+00                                 F               1         HD ExctnPtfmHv2
         21    0.000E+00                                 F               1         HD ExctnPtfmHv3
         22    0.000E+00                                 F               1         HD ExctnPtfmHv4
         23    0.000E+00                                 F               1         HD ExctnPtfmHv5
         24    0.000E+00                                 F               1         HD ExctnPtfmHv6
         25    0.000E+00                                 F               1         HD ExctnPtfmHv7
         26    0.000E+00                                 F               1         HD ExctnPtfmHv8
         27    0.000E+00                                 F               1         HD ExctnPtfmR1
         28    0.000E+00                                 F               1         HD ExctnPtfmR2
         29    0.000E+00                                 F               1         HD ExctnPtfmR3
         30    0.000E+00                                 F               1         HD ExctnPtfmR4
         31    0.000E+00                                 F               1         HD ExctnPtfmR5
         32    0.000E+00                                 F               1         HD ExctnPtfmR6
         33    0.000E+00                                 F               1         HD ExctnPtfmR7
         34    0.000E+00                                 F               1         HD ExctnPtfmR8
         35    0.000E+00                                 F               1         HD ExctnPtfmP1
         36    0.000E+00                                 F               1         HD ExctnPtfmP2
         37    0.000E+00                                 F               1         HD ExctnPtfmP3
         38    0.000E+00                                 F               1         HD ExctnPtfmP4
         39    0.000E+00                                 F               1         HD ExctnPtfmP5
         40    0.000E+00                                 F               1         HD ExctnPtfmP6
         41    0.000E+00                                 F               1         HD ExctnPtfmP7
         42    0.000E+00                                 F               1         HD ExctnPtfmP8
         43    0.000E+00                                 F               1         HD ExctnPtfmY1
         44    0.000E+00                                 F               1         HD ExctnPtfmY2
         45   -7.305E-04                                 F               1         HD RdtnPtfmSg1
         46    1.348E-04                                 F               1         HD RdtnPtfmSg2
         47    3.460E-04                                 F               1         HD RdtnPtfmSg3
         48   -1.129E-04                                 F               1         HD RdtnPtfmSg4
         49   -1.618E-04                                 F               1         HD RdtnPtfmSg5
         50    3.586E-04                                 F               1         HD RdtnPtfmSg6
         51   -2.431E-03                                 F               1         HD RdtnPtfmSg7
         52   -1.140E-04                                 F               1         HD RdtnPtfmSg8
         53    7.902E-05                                 F               1         HD RdtnPtfmSg9
         54    5.322E-05                                 F               1         HD RdtnPtfmSg10
         55   -7.849E-05                                 F               1         HD RdtnPtfmSg11
         56   -3.088E-05                                 F               1         HD RdtnPtfmSg12
         57    1.787E-04                                 F               1         HD RdtnPtfmSg13
         58    1.610E-03                                 F               1         HD RdtnPtfmSg14
         59    0.000E+00                                 F               1         HD RdtnPtfmSw1
         60    0.000E+00                                 F               1         HD RdtnPtfmSw2
         61    0.000E+00                                 F               1         HD RdtnPtfmSw3
         62    0.000E+00                                 F               1         HD RdtnPtfmSw4
         63    0.000E+00                                 F               1         HD RdtnPtfmSw5
         64    0.000E+00                                 F               1         HD RdtnPtfmSw6
         65    0.000E+00                                 F               1         HD RdtnPtfmSw7
         66    0.000E+00                                 F               1         HD RdtnPtfmSw8
         67    0.000E+00                                 F               1         HD RdtnPtfmSw9
         68    0.000E+00                                 F               1         HD RdtnPtfmSw10
         69    0.000E+00                                 F               1         HD RdtnPtfmSw11
         70    0.000E+00                                 F               1         HD RdtnPtfmSw12
         71    0.000E+00                                 F               1         HD RdtnPtfmSw13
         72    0.000E+00                                 F               1         HD RdtnPtfmSw14
         73    0.000E+00                                 F               1         HD RdtnPtfmHv1
         74    0.000E+00                                 F               1         HD RdtnPtfmHv2
         75    0.000E+00                                 F               1         HD RdtnPtfmHv3
         76    0.000E+00                                 F               1         HD RdtnPtfmHv4
         77    0.000E+00                                 F               1         HD RdtnPtfmHv5
         78    0.000E+00                                 F               1         HD RdtnPtfmHv6
         79    0.000E+00                                 F               1         HD RdtnPtfmR1
         80    0.000E+00                                 F               1         HD RdtnPtfmR2
         81    0.000E+00                                 F               1         HD RdtnPtfmR3
         82    0.000E+00                                 F               1         HD RdtnPtfmR4
         83    0.000E+00                                 F               1         HD RdtnPtfmR5
         84    0.000E+00                                 F               1         HD RdtnPtfmR6
         85    0.000E+00                                 F               1         HD RdtnPtfmR7
         86    0.000E+00                                 F               1         HD RdtnPtfmR8
         87    0.000E+00                                 F               1         HD RdtnPtfmR9
         88    0.000E+00                                 F               1         HD RdtnPtfmR10
         89    2.720E-05                                 F               1         HD RdtnPtfmP1
         90    1.140E-06                                 F               1         HD RdtnPtfmP2
         91   -1.344E-05                                 F               1         HD RdtnPtfmP3
         92   -2.795E-06                                 F               1         HD RdtnPtfmP4
         93    6.621E-06                                 F               1         HD RdtnPtfmP5
         94    1.592E-06                                 F               1         HD RdtnPtfmP6
         95   -5.504E-06                                 F               1         HD RdtnPtfmP7
         96    3.158E-06                                 F               1         HD RdtnPtfmP8
         97   -5.382E-06                                 F               1         HD RdtnPtfmP9
         98   -4.046E-06                                 F               1         HD RdtnPtfmP10
         99    0.000E+00                                 F               1         HD RdtnPtfmY1
        100    0.000E+00                                 F               1         HD RdtnPtfmY2
        101    0.000E+00                                 F               1         HD RdtnPtfmY3
        102    0.000E+00                                 F               1         HD RdtnPtfmY4
        103    0.000E+00                                 F               1         HD RdtnPtfmY5
        104    0.000E+00                                 F               1         HD RdtnPtfmY6

Order of continuous state derivatives:
   Row/Column Operating Point                     Rotating Frame? Derivative Order Description
   ---------- ---------------                     --------------- ---------------- -----------
          1    1.051E-03                                 F               2         First time derivative of ED Platform horizontal surge translation DOF (internal DOF index = DOF_Sg), m/s
          2    3.626E-05                                 F               2         First time derivative of ED Platform pitch tilt rotation DOF (internal DOF index = DOF_P), rad/s
          3   -1.176E-02                                 F               2         First time derivative of ED 1st tower fore-aft bending mode DOF (internal DOF index = DOF_TFA1), m/s
          4    4.758E-01                                 F               2         First time derivative of ED Variable speed generator DOF (internal DOF index = DOF_GeAz), rad/s
          5    6.447E-04                                 F               2         First time derivative of ED First time derivative of Platform horizontal surge translation DOF (internal DOF index = DOF_Sg), m/s/s
          6    3.344E-05                                 F               2         First time derivative of ED First time derivative of Platform pitch tilt rotation DOF (internal DOF index = DOF_P), rad/s/s
          7   -8.920E-03                                 F               2         First time derivative of ED First time derivative of 1st tower fore-aft bending mode DOF (internal DOF index = DOF_TFA1), m/s/s
          8    3.381E-04                                 F               2         First time derivative of ED First time derivative of Variable speed generator DOF (internal DOF index = DOF_GeAz), rad/s/s
          9    0.000E+00                                 F               1         First time derivative of HD ExctnPtfmSg1/s
         10    0.000E+00                                 F               1         First time derivative of HD ExctnPtfmSg2/s
         11    0.000E+00                                 F               1         First time derivative of HD ExctnPtfmSg3/s
         12    0.000E+00                                 F               1         First time derivative of HD ExctnPtfmSg4/s
         13    0.000E+00                                 F               1         First time derivative of HD ExctnPtfmSg5/s
         14    0.000E+00                                 F               1         First time derivative of HD ExctnPtfmSg6/s
         15    0.000E+00                                 F               1         First time derivative of HD ExctnPtfmSg7/s
         16    0.000E+00                                 F               1         First time derivative of HD ExctnPtfmSg8/s
         17    0.000E+00                                 F               1         First time derivative of HD ExctnPtfmSw1/s
         18    0.000E+00                                 F               1         First time derivative of HD ExctnPtfmSw2/s
         19    0.000E+00                                 F               1         First time derivative of HD ExctnPtfmHv1/s
         20    0.000E+00                                 F               1         First time derivative of HD ExctnPtfmHv2/s
         21    0.000E+00                                 F               1         First time derivative of HD ExctnPtfmHv3/s
         22    0.000E+00                                 F               1         First time derivative of HD ExctnPtfmHv4/s
         23    0.000E+00                                 F               1         First time derivative of HD ExctnPtfmHv5/s
         24    0.000E+00                                 F               1         First time derivative of HD ExctnPtfmHv6/s
         25    0.000E+00                                 F               1         First time derivative of HD ExctnPtfmHv7/s
         26    0.000E+00                                 F               1         First time derivative of HD ExctnPtfmHv8/s
         27    0.000E+00                                 F               1         First time derivative of HD ExctnPtfmR1/s
         28    0.000E+00                                 F               1         First time derivative of HD ExctnPtfmR2/s
         29    0.000E+00                                 F               1         First time derivative of HD ExctnPtfmR3/s
         30    0.000E+00                                 F               1         First time derivative of HD ExctnPtfmR4/s
         31    0.000E+00                                 F               1         First time derivative of HD ExctnPtfmR5/s
         32    0.000E+00                                 F               1         First time derivative of HD ExctnPtfmR6/s
         33    0.000E+00                                 F               1         First time derivative of HD ExctnPtfmR7/s
         34    0.000E+00                                 F               1         First time derivative of HD ExctnPtfmR8/s
         35    0.000E+00                                 F               1         First time derivative of HD ExctnPtfmP1/s
         36    0.000E+00                                 F               1         First time derivative of HD ExctnPtfmP2/s
         37    0.000E+00                                 F               1         First time derivative of HD ExctnPtfmP3/s
         38    0.000E+00                                 F               1         First time derivative of HD ExctnPtfmP4/s
         39    0.000E+00                                 F               1         First time derivative of HD ExctnPtfmP5/s
         40    0.000E+00                                 F               1         First time derivative of HD ExctnPtfmP6/s
         41    0.000E+00                                 F               1         First time derivative of HD ExctnPtfmP7/s
         42    0.000E+00                                 F               1         First time derivative of HD ExctnPtfmP8/s
         43    0.000E+00                                 F               1         First time derivative of HD ExctnPtfmY1/s
         44    0.000E+00                                 F               1         First time derivative of HD ExctnPtfmY2/s
         45    5.091E-04                                 F               1         First time derivative of HD RdtnPtfmSg1/s
         46   -7.305E-04                                 F               1         First time derivative of HD RdtnPtfmSg2/s
         47    1.348E-04                                 F               1         First time derivative of HD RdtnPtfmSg3/s
         48    3.460E-04                                 F               1         First time derivative of HD RdtnPtfmSg4/s
         49   -1.129E-04                                 F               1         First time derivative of HD RdtnPtfmSg5/s
         50   -1.618E-04                                 F               1         First time derivative of HD RdtnPtfmSg6/s
         51    3.586E-04                                 F               1         First time derivative of HD RdtnPtfmSg7/s
         52    5.125E-04                                 F               1         First time derivative of HD RdtnPtfmSg8/s
         53   -1.140E-04                                 F               1         First time derivative of HD RdtnPtfmSg9/s
         54    7.902E-05                                 F               1         First time derivative of HD RdtnPtfmSg10/s
         55    5.322E-05                                 F               1         First time derivative of HD RdtnPtfmSg11/s
         56   -7.849E-05                                 F               1         First time derivative of HD RdtnPtfmSg12/s
         57   -3.088E-05                                 F               1         First time derivative of HD RdtnPtfmSg13/s
         58    1.787E-04                                 F               1         First time derivative of HD RdtnPtfmSg14/s
         59    0.000E+00                                 F               1         First time derivative of HD RdtnPtfmSw1/s
         60    0.000E+00                                 F               1         First time derivative of HD RdtnPtfmSw2/s
         61    0.000E+00                                 F               1         First time derivative of HD RdtnPtfmSw3/s
         62    0.000E+00                                 F               1         First time derivative of HD RdtnPtfmSw4/s
         63    0.000E+00                                 F               1         First time derivative of HD RdtnPtfmSw5/s
         64    0.000E+00                                 F               1         First time derivative of HD RdtnPtfmSw6/s
         65    0.000E+00                                 F               1         First time derivative of HD RdtnPtfmSw7/s
         66    0.000E+00                                 F               1         First time derivative of HD RdtnPtfmSw8/s
         67    0.000E+00                                 F               1         First time derivative of HD RdtnPtfmSw9/s
         68    0.000E+00                                 F               1         First time derivative of HD RdtnPtfmSw10/s
         69    0.000E+00                                 F               1         First time derivative of HD RdtnPtfmSw11/s
         70    0.000E+00                                 F               1         First time derivative of HD RdtnPtfmSw12/s
         71    0.000E+00                                 F               1         First time derivative of HD RdtnPtfmSw13/s
         72    0.000E+00                                 F               1         First time derivative of HD RdtnPtfmSw14/s
         73    0.000E+00                                 F               1         First time derivative of HD RdtnPtfmHv1/s
         74    0.000E+00                                 F               1         First time derivative of HD RdtnPtfmHv2/s
         75    0.000E+00                                 F               1         First time derivative of HD RdtnPtfmHv3/s
         76    0.000E+00                                 F               1         First time derivative of HD RdtnPtfmHv4/s
         77    0.000E+00                                 F               1         First time derivative of HD RdtnPtfmHv5/s
         78    0.000E+00                                 F               1         First time derivative of HD RdtnPtfmHv6/s
         79    0.000E+00                                 F               1         First time derivative of HD RdtnPtfmR1/s
         80    0.000E+00                                 F               1         First time derivative of HD RdtnPtfmR2/s
         81    0.000E+00                                 F               1         First time derivative of HD RdtnPtfmR3/s
         82    0.000E+00                                 F               1         First time derivative of HD RdtnPtfmR4/s
         83    0.000E+00                                 F               1         First time derivative of HD RdtnPtfmR5/s
         84    0.000E+00                                 F               1         First time derivative of HD RdtnPtfmR6/s
         85    0.000E+00                                 F               1         First time derivative of HD RdtnPtfmR7/s
         86    0.000E+00                                 F               1         First time derivative of HD RdtnPtfmR8/s
         87    0.000E+00                                 F               1         First time derivative of HD RdtnPtfmR9/s
         88    0.000E+00                                 F               1         First time derivative of HD RdtnPtfmR10/s
         89    3.585E-05                                 F               1         First time derivative of HD RdtnPtfmP1/s
         90    2.720E-05                                 F               1         First time derivative of HD RdtnPtfmP2/s
         91    1.140E-06                                 F               1         First time derivative of HD RdtnPtfmP3/s
         92   -1.344E-05                                 F               1         First time derivative of HD RdtnPtfmP4/s
         93   -2.795E-06                                 F               1         First time derivative of HD RdtnPtfmP5/s
         94    6.621E-06                                 F               1         First time derivative of HD RdtnPtfmP6/s
         95    1.592E-06                                 F               1         First time derivative of HD RdtnPtfmP7/s
         96    3.873E-05                                 F               1         First time derivative of HD RdtnPtfmP8/s
         97    3.158E-06                                 F               1         First time derivative of HD RdtnPtfmP9/s
         98   -5.382E-06                                 F               1         First time derivative of HD RdtnPtfmP10/s
         99    0.000E+00                                 F               1         First time derivative of HD RdtnPtfmY1/s
        100    0.000E+00                                 F               1         First time derivative of HD RdtnPtfmY2/s
        101    0.000E+00                                 F               1         First time derivative of HD RdtnPtfmY3/s
        102    0.000E+00                                 F               1         First time derivative of HD RdtnPtfmY4/s
        103    0.000E+00                                 F               1         First time derivative of HD RdtnPtfmY5/s
        104    0.000E+00                                 F               1         First time derivative of HD RdtnPtfmY6/s

Order of inputs:
     Column   Operating Point                     Rotating Frame? Derivative Order Description
   ---------- ---------------                     --------------- ---------------- -----------
          1    7.000E+00                                 F               0         IfW Extended input: horizontal wind speed (steady/uniform wind), m/s
          2    1.200E-01                                 F               0         IfW Extended input: vertical power-law shear exponent, -
          3    0.000E+00                                 F               0         IfW Extended input: propagation direction, rad
          4    2.408E-06                                 T               0         ED Blade 1 pitch command, rad
          5    2.408E-06                                 T               0         ED Blade 2 pitch command, rad
          6    2.408E-06                                 T               0         ED Blade 3 pitch command, rad
          7    0.000E+00                                 F               0         ED Yaw moment, Nm
          8    9.018E+06                                 F               0         ED Generator torque, Nm
          9    2.408E-06                                 F               0         ED Extended input: collective blade-pitch command, rad
         10    0.000E+00                                 F               0         HD Extended input: wave elevation at platform ref point, m

Order of outputs:
        Row   Operating Point                     Rotating Frame? Derivative Order Description
   ---------- ---------------                     --------------- ---------------- -----------
          1    7.000E+00                                 F               0         IfW Wind1VelX, (m/s)
          2    0.000E+00                                 F               0         IfW Wind1VelY, (m/s)
          3    0.000E+00                                 F               0         IfW Wind1VelZ, (m/s)
          4    4.143E+03                                 F               0         SrvD GenPwr, (kW)
          5    9.018E+03                                 F               0         SrvD GenTq, (kN-m)
          6    3.301E+02                                 F               0         ED Azimuth, (deg)
          7    1.380E-04                                 T               0         ED BldPitch1, (deg)
          8    4.544E+00                                 F               0         ED GenSpeed, (rpm)
          9    3.302E-01                                 T               0         ED IPDefl1, (m)
         10   -1.803E+03                                 F               0         ED LSSGagMya, (kN-m)
         11    4.503E+02                                 F               0         ED LSSGagMza, (kN-m)
         12   -1.803E+03                                 F               0         ED LSSTipMya, (kN-m)
         13   -1.338E+03                                 F               0         ED LSSTipMys, (kN-m)
         14    4.503E+02                                 F               0         ED LSSTipMza, (kN-m)
         15    1.289E+03                                 F               0         ED LSSTipMzs, (kN-m)
         16   -2.488E+01                                 F               0         ED LSShftFys, (kN)
         17   -3.732E+03                                 F               0         ED LSShftFzs, (kN)
         18    0.000E+00                                 F               0         ED NacYaw, (deg)
         19   -3.875E-03                                 F               0         ED NcIMUTAxs, (m/s^2)
         20   -1.937E-05                                 F               0         ED NcIMUTAys, (m/s^2)
         21   -9.830E-04                                 F               0         ED NcIMUTAzs, (m/s^2)
         22    3.023E-02                                 T               0         ED OoPDefl1, (m)
         23   -6.186E-02                                 F               0         ED PtfmHeave, (m)
         24    1.225E+00                                 F               0         ED PtfmPitch, (deg)
         25    1.932E-01                                 F               0         ED PtfmRoll, (deg)
         26    1.134E+01                                 F               0         ED PtfmSurge, (m)