
Linearized model: Predictions were generated on 02-Feb-2021 at 09:29:48 using OpenFAST, compiled as a 64-bit application using single precision at commit -128-NOTFOUND
 linked with  NWTC Subroutine Library; ElastoDyn; InflowWind; AeroDyn; ServoDyn; HydroDyn; MAP++ (<1.20.10>, <Jan-27-2021>)

Description from the FAST input file: Generated with AeroElasticSE FAST driver

Simulation information:
   Simulation time:                   172.0000 s
   Rotor Speed:                         0.6833 rad/s
   Azimuth:                             3.6667 rad
   Wind Speed:                         11.0000 m/s
   Number of continuous states:       100
   Number of discrete states:           0
   Number of constraint states:         0
   Number of inputs:                   10
   Number of outputs:                 108
   Jacobians included in this file?    No

Order of continuous states:
   Row/Column Operating Point                     Rotating Frame? Derivative Order Description
   ---------- ---------------                     --------------- ---------------- -----------
          1    5.369E-02                                 F               2         ED Platform pitch tilt rotation DOF (internal DOF index = DOF_P), rad
          2    2.096E+00                                 F               2         ED Variable speed generator DOF (internal DOF index = DOF_GeAz), rad
          3   -2.229E-06                                 F               2         ED First time derivative of Platform pitch tilt rotation DOF (internal DOF index = DOF_P), rad/s
          4    6.833E-01                                 F               2         ED First time derivative of Variable speed generator DOF (internal DOF index = DOF_GeAz), rad/s
          5    0.000E+00                                 F               1         HD ExctnPtfmSg1
          6    0.000E+00                                 F               1         HD ExctnPtfmSg2
          7    0.000E+00                                 F               1         HD ExctnPtfmSg3
          8    0.000E+00                                 F               1         HD ExctnPtfmSg4
          9    0.000E+00                                 F               1         HD ExctnPtfmSg5
         10    0.000E+00                                 F               1         HD ExctnPtfmSg6
         11    0.000E+00                                 F               1         HD ExctnPtfmSg7
         12    0.000E+00                                 F               1         HD ExctnPtfmSg8
         13    0.000E+00                                 F               1         HD ExctnPtfmSw1
         14    0.000E+00                                 F               1         HD ExctnPtfmSw2
         15    0.000E+00                                 F               1         HD ExctnPtfmHv1
         16    0.000E+00                                 F               1         HD ExctnPtfmHv2
         17    0.000E+00                                 F               1         HD ExctnPtfmHv3
         18    0.000E+00                                 F               1         HD ExctnPtfmHv4
         19    0.000E+00                                 F               1         HD ExctnPtfmHv5
         20    0.000E+00                                 F               1         HD ExctnPtfmHv6
         21    0.000E+00                                 F               1         HD ExctnPtfmHv7
         22    0.000E+00                                 F               1         HD ExctnPtfmHv8
         23    0.000E+00                                 F               1         HD ExctnPtfmR1
         24    0.000E+00                                 F               1         HD ExctnPtfmR2
         25    0.000E+00                                 F               1         HD ExctnPtfmR3
         26    0.000E+00                                 F               1         HD ExctnPtfmR4
         27    0.000E+00                                 F               1         HD ExctnPtfmR5
         28    0.000E+00                                 F               1         HD ExctnPtfmR6
         29    0.000E+00                                 F               1         HD ExctnPtfmR7
         30    0.000E+00                                 F               1         HD ExctnPtfmR8
         31    0.000E+00                                 F               1         HD ExctnPtfmP1
         32    0.000E+00                                 F               1         HD ExctnPtfmP2
         33    0.000E+00                                 F               1         HD ExctnPtfmP3
         34    0.000E+00                                 F               1         HD ExctnPtfmP4
         35    0.000E+00                                 F               1         HD ExctnPtfmP5
         36    0.000E+00                                 F               1         HD ExctnPtfmP6
         37    0.000E+00                                 F               1         HD ExctnPtfmP7
         38    0.000E+00                                 F               1         HD ExctnPtfmP8
         39    0.000E+00                                 F               1         HD ExctnPtfmY1
         40    0.000E+00                                 F               1         HD ExctnPtfmY2
         41    0.000E+00                                 F               1         HD RdtnPtfmSg1
         42    0.000E+00                                 F               1         HD RdtnPtfmSg2
         43    0.000E+00                                 F               1         HD RdtnPtfmSg3
         44    0.000E+00                                 F               1         HD RdtnPtfmSg4
         45    0.000E+00                                 F               1         HD RdtnPtfmSg5
         46    0.000E+00                                 F               1         HD RdtnPtfmSg6
         47    0.000E+00                                 F               1         HD RdtnPtfmSg7
         48    0.000E+00                                 F               1         HD RdtnPtfmSg8
         49    0.000E+00                                 F               1         HD RdtnPtfmSg9
         50    0.000E+00                                 F               1         HD RdtnPtfmSg10
         51    0.000E+00                                 F               1         HD RdtnPtfmSg11
         52    0.000E+00                                 F               1         HD RdtnPtfmSg12
         53    0.000E+00                                 F               1         HD RdtnPtfmSg13
         54    0.000E+00                                 F               1         HD RdtnPtfmSg14
         55    0.000E+00                                 F               1         HD RdtnPtfmSw1
         56    0.000E+00                                 F               1         HD RdtnPtfmSw2
         57    0.000E+00                                 F               1         HD RdtnPtfmSw3
         58    0.000E+00                                 F               1         HD RdtnPtfmSw4
         59    0.000E+00                                 F               1         HD RdtnPtfmSw5
         60    0.000E+00                                 F               1         HD RdtnPtfmSw6
         61    0.000E+00                                 F               1         HD RdtnPtfmSw7
         62    0.000E+00                                 F               1         HD RdtnPtfmSw8
         63    0.000E+00                                 F               1         HD RdtnPtfmSw9
         64    0.000E+00                                 F               1         HD RdtnPtfmSw10
         65    0.000E+00                                 F               1         HD RdtnPtfmSw11
         66    0.000E+00                                 F               1         HD RdtnPtfmSw12
         67    0.000E+00                                 F               1         HD RdtnPtfmSw13
         68    0.000E+00                                 F               1         HD RdtnPtfmSw14
         69    0.000E+00                                 F               1         HD RdtnPtfmHv1
         70    0.000E+00                                 F               1         HD RdtnPtfmHv2
         71    0.000E+00                                 F               1         HD RdtnPtfmHv3
         72    0.000E+00                                 F               1         HD RdtnPtfmHv4
         73    0.000E+00                                 F               1         HD RdtnPtfmHv5
         74    0.000E+00                                 F               1         HD RdtnPtfmHv6
         75    0.000E+00                                 F               1         HD RdtnPtfmR1
         76    0.000E+00                                 F               1         HD RdtnPtfmR2
         77    0.000E+00                                 F               1         HD RdtnPtfmR3
         78    0.000E+00                                 F               1         HD RdtnPtfmR4
         79    0.000E+00                                 F               1         HD RdtnPtfmR5
         80    0.000E+00                                 F               1         HD RdtnPtfmR6
         81    0.000E+00                                 F               1         HD RdtnPtfmR7
         82    0.000E+00                                 F               1         HD RdtnPtfmR8
         83    0.000E+00                                 F               1         HD RdtnPtfmR9
         84    0.000E+00                                 F               1         HD RdtnPtfmR10
         85   -5.395E-07                                 F               1         HD RdtnPtfmP1
         86    3.023E-06                                 F               1         HD RdtnPtfmP2
         87    6.069E-08                                 F               1         HD RdtnPtfmP3
         88   -7.207E-07                                 F               1         HD RdtnPtfmP4
         89   -4.407E-08                                 F               1         HD RdtnPtfmP5
         90   -3.375E-07                                 F               1         HD RdtnPtfmP6
         91    1.197E-05                                 F               1         HD RdtnPtfmP7
         92    1.851E-07                                 F               1         HD RdtnPtfmP8
         93    1.064E-06                                 F               1         HD RdtnPtfmP9
         94    9.480E-06                                 F               1         HD RdtnPtfmP10
         95    0.000E+00                                 F               1         HD RdtnPtfmY1
         96    0.000E+00                                 F               1         HD RdtnPtfmY2
         97    0.000E+00                                 F               1         HD RdtnPtfmY3
         98    0.000E+00                                 F               1         HD RdtnPtfmY4
         99    0.000E+00                                 F               1         HD RdtnPtfmY5
        100    0.000E+00                                 F               1         HD RdtnPtfmY6

Order of continuous state derivatives:
   Row/Column Operating Point                     Rotating Frame? Derivative Order Description
   ---------- ---------------                     --------------- ---------------- -----------
          1   -2.229E-06                                 F               2         First time derivative of ED Platform pitch tilt rotation DOF (internal DOF index = DOF_P), rad/s
          2    6.833E-01                                 F               2         First time derivative of ED Variable speed generator DOF (internal DOF index = DOF_GeAz), rad/s
          3   -2.917E-06                                 F               2         First time derivative of ED First time derivative of Platform pitch tilt rotation DOF (internal DOF index = DOF_P), rad/s/s
          4    2.930E-04                                 F               2         First time derivative of ED First time derivative of Variable speed generator DOF (internal DOF index = DOF_GeAz), rad/s/s
          5    0.000E+00                                 F               1         First time derivative of HD ExctnPtfmSg1/s
          6    0.000E+00                                 F               1         First time derivative of HD ExctnPtfmSg2/s
          7    0.000E+00                                 F               1         First time derivative of HD ExctnPtfmSg3/s
          8    0.000E+00                                 F               1         First time derivative of HD ExctnPtfmSg4/s
          9    0.000E+00                                 F               1         First time derivative of HD ExctnPtfmSg5/s
         10    0.000E+00                                 F               1         First time derivative of HD ExctnPtfmSg6/s
         11    0.000E+00                                 F               1         First time derivative of HD ExctnPtfmSg7/s
         12    0.000E+00                                 F               1         First time derivative of HD ExctnPtfmSg8/s
         13    0.000E+00                                 F               1         First time derivative of HD ExctnPtfmSw1/s
         14    0.000E+00                                 F               1         First time derivative of HD ExctnPtfmSw2/s
         15    0.000E+00                                 F               1         First time derivative of HD ExctnPtfmHv1/s
         16    0.000E+00                                 F               1         First time derivative of HD ExctnPtfmHv2/s
         17    0.000E+00                                 F               1         First time derivative of HD ExctnPtfmHv3/s
         18    0.000E+00                                 F               1         First time derivative of HD ExctnPtfmHv4/s
         19    0.000E+00                                 F               1         First time derivative of HD ExctnPtfmHv5/s
         20    0.000E+00                                 F               1         First time derivative of HD ExctnPtfmHv6/s
         21    0.000E+00                                 F               1         First time derivative of HD ExctnPtfmHv7/s
         22    0.000E+00                                 F               1         First time derivative of HD ExctnPtfmHv8/s
         23    0.000E+00                                 F               1         First time derivative of HD ExctnPtfmR1/s
         24    0.000E+00                                 F               1         First time derivative of HD ExctnPtfmR2/s
         25    0.000E+00                                 F               1         First time derivative of HD ExctnPtfmR3/s
         26    0.000E+00                                 F               1         First time derivative of HD ExctnPtfmR4/s
         27    0.000E+00                                 F               1         First time derivative of HD ExctnPtfmR5/s
         28    0.000E+00                                 F               1         First time derivative of HD ExctnPtfmR6/s
         29    0.000E+00                                 F               1         First time derivative of HD ExctnPtfmR7/s
         30    0.000E+00                                 F               1         First time derivative of HD ExctnPtfmR8/s
         31    0.000E+00                                 F               1         First time derivative of HD ExctnPtfmP1/s
         32    0.000E+00                                 F               1         First time derivative of HD ExctnPtfmP2/s
         33    0.000E+00                                 F               1         First time derivative of HD ExctnPtfmP3/s
         34    0.000E+00                                 F               1         First time derivative of HD ExctnPtfmP4/s
         35    0.000E+00                                 F               1         First time derivative of HD ExctnPtfmP5/s
         36    0.000E+00                                 F               1         First time derivative of HD ExctnPtfmP6/s
         37    0.000E+00                                 F               1         First time derivative of HD ExctnPtfmP7/s
         38    0.000E+00                                 F               1         First time derivative of HD ExctnPtfmP8/s
         39    0.000E+00                                 F               1         First time derivative of HD ExctnPtfmY1/s
         40    0.000E+00                                 F               1         First time derivative of HD ExctnPtfmY2/s
         41    0.000E+00                                 F               1         First time derivative of HD RdtnPtfmSg1/s
         42    0.000E+00                                 F               1         First time derivative of HD RdtnPtfmSg2/s
         43    0.000E+00                                 F               1         First time derivative of HD RdtnPtfmSg3/s
         44    0.000E+00                                 F               1         First time derivative of HD RdtnPtfmSg4/s
         45    0.000E+00                                 F               1         First time derivative of HD RdtnPtfmSg5/s
         46    0.000E+00                                 F               1         First time derivative of HD RdtnPtfmSg6/s
         47    0.000E+00                                 F               1         First time derivative of HD RdtnPtfmSg7/s
         48    0.000E+00                                 F               1         First time derivative of HD RdtnPtfmSg8/s
         49    0.000E+00                                 F               1         First time derivative of HD RdtnPtfmSg9/s
         50    0.000E+00                                 F               1         First time derivative of HD RdtnPtfmSg10/s
         51    0.000E+00                                 F               1         First time derivative of HD RdtnPtfmSg11/s
         52    0.000E+00                                 F               1         First time derivative of HD RdtnPtfmSg12/s
         53    0.000E+00                                 F               1         First time derivative of HD RdtnPtfmSg13/s
         54    0.000E+00                                 F               1         First time derivative of HD RdtnPtfmSg14/s
         55    0.000E+00                                 F               1         First time derivative of HD RdtnPtfmSw1/s
         56    0.000E+00                                 F               1         First time derivative of HD RdtnPtfmSw2/s
         57    0.000E+00                                 F               1         First time derivative of HD RdtnPtfmSw3/s
         58    0.000E+00                                 F               1         First time derivative of HD RdtnPtfmSw4/s
         59    0.000E+00                                 F               1         First time derivative of HD RdtnPtfmSw5/s
         60    0.000E+00                                 F               1         First time derivative of HD RdtnPtfmSw6/s
         61    0.000E+00                                 F               1         First time derivative of HD RdtnPtfmSw7/s
         62    0.000E+00                                 F               1         First time derivative of HD RdtnPtfmSw8/s
         63    0.000E+00                                 F               1         First time derivative of HD RdtnPtfmSw9/s
         64    0.000E+00                                 F               1         First time derivative of HD RdtnPtfmSw10/s
         65    0.000E+00                                 F               1         First time derivative of HD RdtnPtfmSw11/s
         66    0.000E+00                                 F               1         First time derivative of HD RdtnPtfmSw12/s
         67    0.000E+00                                 F               1         First time derivative of HD RdtnPtfmSw13/s
         68    0.000E+00                                 F               1         First time derivative of HD RdtnPtfmSw14/s
         69    0.000E+00                                 F               1         First time derivative of HD RdtnPtfmHv1/s
         70    0.000E+00                                 F               1         First time derivative of HD RdtnPtfmHv2/s
         71    0.000E+00                                 F               1         First time derivative of HD RdtnPtfmHv3/s
         72    0.000E+00                                 F               1         First time derivative of HD RdtnPtfmHv4/s
         73    0.000E+00                                 F               1         First time derivative of HD RdtnPtfmHv5/s
         74    0.000E+00                                 F               1         First time derivative of HD RdtnPtfmHv6/s
         75    0.000E+00                                 F               1         First time derivative of HD RdtnPtfmR1/s
         76    0.000E+00                                 F               1         First time derivative of HD RdtnPtfmR2/s
         77    0.000E+00                                 F               1         First time derivative of HD RdtnPtfmR3/s
         78    0.000E+00                                 F               1         First time derivative of HD RdtnPtfmR4/s
         79    0.000E+00                                 F               1         First time derivative of HD RdtnPtfmR5/s
         80    0.000E+00                                 F               1         First time derivative of HD RdtnPtfmR6/s
         81    0.000E+00                                 F               1         First time derivative of HD RdtnPtfmR7/s
         82    0.000E+00                                 F               1         First time derivative of HD RdtnPtfmR8/s
         83    0.000E+00                                 F               1         First time derivative of HD RdtnPtfmR9/s
         84    0.000E+00                                 F               1         First time derivative of HD RdtnPtfmR10/s
         85   -1.222E-05                                 F               1         First time derivative of HD RdtnPtfmP1/s
         86   -5.395E-07                                 F               1         First time derivative of HD RdtnPtfmP2/s
         87    3.023E-06                                 F               1         First time derivative of HD RdtnPtfmP3/s
         88    6.069E-08                                 F               1         First time derivative of HD RdtnPtfmP4/s
         89   -7.207E-07                                 F               1         First time derivative of HD RdtnPtfmP5/s
         90   -4.407E-08                                 F               1         First time derivative of HD RdtnPtfmP6/s
         91   -3.375E-07                                 F               1         First time derivative of HD RdtnPtfmP7/s
         92   -5.986E-06                                 F               1         First time derivative of HD RdtnPtfmP8/s
         93    1.851E-07                                 F               1         First time derivative of HD RdtnPtfmP9/s
         94    1.064E-06                                 F               1         First time derivative of HD RdtnPtfmP10/s
         95    0.000E+00                                 F               1         First time derivative of HD RdtnPtfmY1/s
         96    0.000E+00                                 F               1         First time derivative of HD RdtnPtfmY2/s
         97    0.000E+00                                 F               1         First time derivative of HD RdtnPtfmY3/s
         98    0.000E+00                                 F               1         First time derivative of HD RdtnPtfmY4/s
         99    0.000E+00                                 F               1         First time derivative of HD RdtnPtfmY5/s
        100    0.000E+00                                 F               1         First time derivative of HD RdtnPtfmY6/s

Order of inputs:
     Column   Operating Point                     Rotating Frame? Derivative Order Description
   ---------- ---------------                     --------------- ---------------- -----------
          1    1.100E+01                                 F               0         IfW Extended input: horizontal wind speed (steady/uniform wind), m/s
          2    1.200E-01                                 F               0         IfW Extended input: vertical power-law shear exponent, -
          3    0.000E+00                                 F               0         IfW Extended input: propagation direction, rad
          4    7.114E-02                                 T               0         ED Blade 1 pitch command, rad
          5    7.114E-02                                 T               0         ED Blade 2 pitch command, rad
          6    7.114E-02                                 T               0         ED Blade 3 pitch command, rad
          7    0.000E+00                                 F               0         ED Yaw moment, Nm
          8    1.962E+07                                 F               0         ED Generator torque, Nm
          9    7.114E-02                                 F               0         ED Extended input: collective blade-pitch command, rad
         10    0.000E+00                                 F               0         HD Extended input: wave elevation at platform ref point, m

Order of outputs:
        Row   Operating Point                     Rotating Frame? Derivative Order Description
   ---------- ---------------                     --------------- ---------------- -----------
          1    1.100E+01                                 F               0         IfW Wind1VelX, (m/s)
          2    0.000E+00                                 F               0         IfW Wind1VelY, (m/s)
          3    0.000E+00                                 F               0         IfW Wind1VelZ, (m/s)
          4    1.294E+04                                 F               0         SrvD GenPwr, (kW)
          5    1.962E+04                                 F               0         SrvD GenTq, (kN-m)
          6    2.101E+02                                 F               0         ED Azimuth, (deg)
          7    4.076E+00                                 T               0         ED BldPitch1, (deg)
          8    6.525E+00                                 F               0         ED GenSpeed, (rpm)
          9    5.983E-01                                 T               0         ED IPDefl1, (m)
         10   -2.472E+03                                 F               0         ED LSSGagMya, (kN-m)
         11   -1.281E+03                                 F               0         ED LSSGagMza, (kN-m)
         12   -2.472E+03                                 F               0         ED LSSTipMya, (kN-m)
         13    1.497E+03                                 F               0         ED LSSTipMys, (kN-m)
         14   -1.281E+03                                 F               0         ED LSSTipMza, (kN-m)
         15    2.347E+03                                 F               0         ED LSSTipMzs, (kN-m)
         16   -5.442E+01                                 F               0         ED LSShftFys, (kN)
         17   -3.710E+03                                 F               0         ED LSShftFzs, (kN)
         18    0.000E+00                                 F               0         ED NacYaw, (deg)
         19   -4.303E-04                                 F               0         ED NcIMUTAxs, (m/s^2)
         20    2.095E-06                                 F               0         ED NcIMUTAys, (m/s^2)
         21   -5.985E-05                                 F               0         ED NcIMUTAzs, (m/s^2)
         22    9.803E-02                                 T               0         ED OoPDefl1, (m)
         23   -1.145E-01                                 F               0         ED PtfmHeave, (m)
         24    3.076E+00                                 F               0         ED PtfmPitch, (deg)
         25    4.376E-01                                 F               0         ED PtfmRoll, (deg)
         26    1.723E+01                                 F               0         ED PtfmSurge, (m)
         27    1.133E-01                                 F               0         ED PtfmSway, (m)
         28    2.795E-01                                 F               0         ED PtfmYaw, (deg)
         29    6.814E+02                                 T               0         ED RootFxb1, (kN)
         30    6.827E+02                                 T               0         ED RootFxb2, (kN)
         31    7.816E+02                                 T               0         ED RootFxb3, (kN)
         32    2.794E+02                                 T               0         ED RootFyb1, (kN)
         33    2.444E+02                                 T               0         ED RootFyb2, (kN)
         34   -6.721E+02                                 T               0         ED RootFyb3, (kN)
         35    1.454E+03                                 T               0         ED RootFzb1, (kN)
         36    3.758E+02                                 T               0         ED RootFzb2, (kN)
         37    9.251E+02                                 T               0         ED RootFzb3, (kN)
         38   -6.266E+03                                 T               0         ED RootMxb1, (kN-m)
         39   -4.498E+03                                 T               0         ED RootMxb2, (kN-m)
         40    1.963E+04                                 T               0         ED RootMxb3, (kN-m)