
Linearized model: Predictions were generated on 02-Feb-2021 at 09:44:28 using OpenFAST, compiled as a 64-bit application using single precision at commit -128-NOTFOUND
 linked with  NWTC Subroutine Library; ElastoDyn; InflowWind; AeroDyn; ServoDyn; HydroDyn; MAP++ (<1.20.10>, <Jan-27-2021>)

Description from the FAST input file: Generated with AeroElasticSE FAST driver

Simulation information:
   Simulation time:                    89.0000 s
   Rotor Speed:                         0.7896 rad/s
   Azimuth:                             1.0571 rad
   Wind Speed:                         19.0000 m/s
   Number of continuous states:       102
   Number of discrete states:           0
   Number of constraint states:         0
   Number of inputs:                   10
   Number of outputs:                 108
   Jacobians included in this file?    No

Order of continuous states:
   Row/Column Operating Point                     Rotating Frame? Derivative Order Description
   ---------- ---------------                     --------------- ---------------- -----------
          1    2.871E-02                                 F               2         ED Platform pitch tilt rotation DOF (internal DOF index = DOF_P), rad
          2    1.180E-01                                 F               2         ED 1st tower fore-aft bending mode DOF (internal DOF index = DOF_TFA1), m
          3    5.769E+00                                 F               2         ED Variable speed generator DOF (internal DOF index = DOF_GeAz), rad
          4   -7.245E-05                                 F               2         ED First time derivative of Platform pitch tilt rotation DOF (internal DOF index = DOF_P), rad/s
          5    1.684E-02                                 F               2         ED First time derivative of 1st tower fore-aft bending mode DOF (internal DOF index = DOF_TFA1), m/s
          6    7.896E-01                                 F               2         ED First time derivative of Variable speed generator DOF (internal DOF index = DOF_GeAz), rad/s
          7    0.000E+00                                 F               1         HD ExctnPtfmSg1
          8    0.000E+00                                 F               1         HD ExctnPtfmSg2
          9    0.000E+00                                 F               1         HD ExctnPtfmSg3
         10    0.000E+00                                 F               1         HD ExctnPtfmSg4
         11    0.000E+00                                 F               1         HD ExctnPtfmSg5
         12    0.000E+00                                 F               1         HD ExctnPtfmSg6
         13    0.000E+00                                 F               1         HD ExctnPtfmSg7
         14    0.000E+00                                 F               1         HD ExctnPtfmSg8
         15    0.000E+00                                 F               1         HD ExctnPtfmSw1
         16    0.000E+00                                 F               1         HD ExctnPtfmSw2
         17    0.000E+00                                 F               1         HD ExctnPtfmHv1
         18    0.000E+00                                 F               1         HD ExctnPtfmHv2
         19    0.000E+00                                 F               1         HD ExctnPtfmHv3
         20    0.000E+00                                 F               1         HD ExctnPtfmHv4
         21    0.000E+00                                 F               1         HD ExctnPtfmHv5
         22    0.000E+00                                 F               1         HD ExctnPtfmHv6
         23    0.000E+00                                 F               1         HD ExctnPtfmHv7
         24    0.000E+00                                 F               1         HD ExctnPtfmHv8
         25    0.000E+00                                 F               1         HD ExctnPtfmR1
         26    0.000E+00                                 F               1         HD ExctnPtfmR2
         27    0.000E+00                                 F               1         HD ExctnPtfmR3
         28    0.000E+00                                 F               1         HD ExctnPtfmR4
         29    0.000E+00                                 F               1         HD ExctnPtfmR5
         30    0.000E+00                                 F               1         HD ExctnPtfmR6
         31    0.000E+00                                 F               1         HD ExctnPtfmR7
         32    0.000E+00                                 F               1         HD ExctnPtfmR8
         33    0.000E+00                                 F               1         HD ExctnPtfmP1
         34    0.000E+00                                 F               1         HD ExctnPtfmP2
         35    0.000E+00                                 F               1         HD ExctnPtfmP3
         36    0.000E+00                                 F               1         HD ExctnPtfmP4
         37    0.000E+00                                 F               1         HD ExctnPtfmP5
         38    0.000E+00                                 F               1         HD ExctnPtfmP6
         39    0.000E+00                                 F               1         HD ExctnPtfmP7
         40    0.000E+00                                 F               1         HD ExctnPtfmP8
         41    0.000E+00                                 F               1         HD ExctnPtfmY1
         42    0.000E+00                                 F               1         HD ExctnPtfmY2
         43    0.000E+00                                 F               1         HD RdtnPtfmSg1
         44    0.000E+00                                 F               1         HD RdtnPtfmSg2
         45    0.000E+00                                 F               1         HD RdtnPtfmSg3
         46    0.000E+00                                 F               1         HD RdtnPtfmSg4
         47    0.000E+00                                 F               1         HD RdtnPtfmSg5
         48    0.000E+00                                 F               1         HD RdtnPtfmSg6
         49    0.000E+00                                 F               1         HD RdtnPtfmSg7
         50    0.000E+00                                 F               1         HD RdtnPtfmSg8
         51    0.000E+00                                 F               1         HD RdtnPtfmSg9
         52    0.000E+00                                 F               1         HD RdtnPtfmSg10
         53    0.000E+00                                 F               1         HD RdtnPtfmSg11
         54    0.000E+00                                 F               1         HD RdtnPtfmSg12
         55    0.000E+00                                 F               1         HD RdtnPtfmSg13
         56    0.000E+00                                 F               1         HD RdtnPtfmSg14
         57    0.000E+00                                 F               1         HD RdtnPtfmSw1
         58    0.000E+00                                 F               1         HD RdtnPtfmSw2
         59    0.000E+00                                 F               1         HD RdtnPtfmSw3
         60    0.000E+00                                 F               1         HD RdtnPtfmSw4
         61    0.000E+00                                 F               1         HD RdtnPtfmSw5
         62    0.000E+00                                 F               1         HD RdtnPtfmSw6
         63    0.000E+00                                 F               1         HD RdtnPtfmSw7
         64    0.000E+00                                 F               1         HD RdtnPtfmSw8
         65    0.000E+00                                 F               1         HD RdtnPtfmSw9
         66    0.000E+00                                 F               1         HD RdtnPtfmSw10
         67    0.000E+00                                 F               1         HD RdtnPtfmSw11
         68    0.000E+00                                 F               1         HD RdtnPtfmSw12
         69    0.000E+00                                 F               1         HD RdtnPtfmSw13
         70    0.000E+00                                 F               1         HD RdtnPtfmSw14
         71    0.000E+00                                 F               1         HD RdtnPtfmHv1
         72    0.000E+00                                 F               1         HD RdtnPtfmHv2
         73    0.000E+00                                 F               1         HD RdtnPtfmHv3
         74    0.000E+00                                 F               1         HD RdtnPtfmHv4
         75    0.000E+00                                 F               1         HD RdtnPtfmHv5
         76    0.000E+00                                 F               1         HD RdtnPtfmHv6
         77    0.000E+00                                 F               1         HD RdtnPtfmR1
         78    0.000E+00                                 F               1         HD RdtnPtfmR2
         79    0.000E+00                                 F               1         HD RdtnPtfmR3
         80    0.000E+00                                 F               1         HD RdtnPtfmR4
         81    0.000E+00                                 F               1         HD RdtnPtfmR5
         82    0.000E+00                                 F               1         HD RdtnPtfmR6
         83    0.000E+00                                 F               1         HD RdtnPtfmR7
         84    0.000E+00                                 F               1         HD RdtnPtfmR8
         85    0.000E+00                                 F               1         HD RdtnPtfmR9
         86    0.000E+00                                 F               1         HD RdtnPtfmR10
         87   -1.101E-04                                 F               1         HD RdtnPtfmP1
         88   -4.450E-06                                 F               1         HD RdtnPtfmP2
         89    1.985E-05                                 F               1         HD RdtnPtfmP3
         90    8.785E-07                                 F               1         HD RdtnPtfmP4
         91   -2.116E-06                                 F               1         HD RdtnPtfmP5
         92   -3.365E-06                                 F               1         HD RdtnPtfmP6
         93   -2.214E-05                                 F               1         HD RdtnPtfmP7
         94   -6.643E-05                                 F               1         HD RdtnPtfmP8
         95    1.750E-07                                 F               1         HD RdtnPtfmP9
         96   -8.613E-06                                 F               1         HD RdtnPtfmP10
         97    0.000E+00                                 F               1         HD RdtnPtfmY1
         98    0.000E+00                                 F               1         HD RdtnPtfmY2
         99    0.000E+00                                 F               1         HD RdtnPtfmY3
        100    0.000E+00                                 F               1         HD RdtnPtfmY4
        101    0.000E+00                                 F               1         HD RdtnPtfmY5
        102    0.000E+00                                 F               1         HD RdtnPtfmY6

Order of continuous state derivatives:
   Row/Column Operating Point                     Rotating Frame? Derivative Order Description
   ---------- ---------------                     --------------- ---------------- -----------
          1   -7.245E-05                                 F               2         First time derivative of ED Platform pitch tilt rotation DOF (internal DOF index = DOF_P), rad/s
          2    1.684E-02                                 F               2         First time derivative of ED 1st tower fore-aft bending mode DOF (internal DOF index = DOF_TFA1), m/s
          3    7.896E-01                                 F               2         First time derivative of ED Variable speed generator DOF (internal DOF index = DOF_GeAz), rad/s
          4    2.634E-04                                 F               2         First time derivative of ED First time derivative of Platform pitch tilt rotation DOF (internal DOF index = DOF_P), rad/s/s
          5   -9.172E-02                                 F               2         First time derivative of ED First time derivative of 1st tower fore-aft bending mode DOF (internal DOF index = DOF_TFA1), m/s/s
          6   -2.854E-03                                 F               2         First time derivative of ED First time derivative of Variable speed generator DOF (internal DOF index = DOF_GeAz), rad/s/s
          7    0.000E+00                                 F               1         First time derivative of HD ExctnPtfmSg1/s
          8    0.000E+00                                 F               1         First time derivative of HD ExctnPtfmSg2/s
          9    0.000E+00                                 F               1         First time derivative of HD ExctnPtfmSg3/s
         10    0.000E+00                                 F               1         First time derivative of HD ExctnPtfmSg4/s
         11    0.000E+00                                 F               1         First time derivative of HD ExctnPtfmSg5/s
         12    0.000E+00                                 F               1         First time derivative of HD ExctnPtfmSg6/s
         13    0.000E+00                                 F               1         First time derivative of HD ExctnPtfmSg7/s
         14    0.000E+00                                 F               1         First time derivative of HD ExctnPtfmSg8/s
         15    0.000E+00                                 F               1         First time derivative of HD ExctnPtfmSw1/s
         16    0.000E+00                                 F               1         First time derivative of HD ExctnPtfmSw2/s
         17    0.000E+00                                 F               1         First time derivative of HD ExctnPtfmHv1/s
         18    0.000E+00                                 F               1         First time derivative of HD ExctnPtfmHv2/s
         19    0.000E+00                                 F               1         First time derivative of HD ExctnPtfmHv3/s
         20    0.000E+00                                 F               1         First time derivative of HD ExctnPtfmHv4/s
         21    0.000E+00                                 F               1         First time derivative of HD ExctnPtfmHv5/s
         22    0.000E+00                                 F               1         First time derivative of HD ExctnPtfmHv6/s
         23    0.000E+00                                 F               1         First time derivative of HD ExctnPtfmHv7/s
         24    0.000E+00                                 F               1         First time derivative of HD ExctnPtfmHv8/s
         25    0.000E+00                                 F               1         First time derivative of HD ExctnPtfmR1/s
         26    0.000E+00                                 F               1         First time derivative of HD ExctnPtfmR2/s
         27    0.000E+00                                 F               1         First time derivative of HD ExctnPtfmR3/s
         28    0.000E+00                                 F               1         First time derivative of HD ExctnPtfmR4/s
         29    0.000E+00                                 F               1         First time derivative of HD ExctnPtfmR5/s
         30    0.000E+00                                 F               1         First time derivative of HD ExctnPtfmR6/s
         31    0.000E+00                                 F               1         First time derivative of HD ExctnPtfmR7/s
         32    0.000E+00                                 F               1         First time derivative of HD ExctnPtfmR8/s
         33    0.000E+00                                 F               1         First time derivative of HD ExctnPtfmP1/s
         34    0.000E+00                                 F               1         First time derivative of HD ExctnPtfmP2/s
         35    0.000E+00                                 F               1         First time derivative of HD ExctnPtfmP3/s
         36    0.000E+00                                 F               1         First time derivative of HD ExctnPtfmP4/s
         37    0.000E+00                                 F               1         First time derivative of HD ExctnPtfmP5/s
         38    0.000E+00                                 F               1         First time derivative of HD ExctnPtfmP6/s
         39    0.000E+00                                 F               1         First time derivative of HD ExctnPtfmP7/s
         40    0.000E+00                                 F               1         First time derivative of HD ExctnPtfmP8/s
         41    0.000E+00                                 F               1         First time derivative of HD ExctnPtfmY1/s
         42    0.000E+00                                 F               1         First time derivative of HD ExctnPtfmY2/s
         43    0.000E+00                                 F               1         First time derivative of HD RdtnPtfmSg1/s
         44    0.000E+00                                 F               1         First time derivative of HD RdtnPtfmSg2/s
         45    0.000E+00                                 F               1         First time derivative of HD RdtnPtfmSg3/s
         46    0.000E+00                                 F               1         First time derivative of HD RdtnPtfmSg4/s
         47    0.000E+00                                 F               1         First time derivative of HD RdtnPtfmSg5/s
         48    0.000E+00                                 F               1         First time derivative of HD RdtnPtfmSg6/s
         49    0.000E+00                                 F               1         First time derivative of HD RdtnPtfmSg7/s
         50    0.000E+00                                 F               1         First time derivative of HD RdtnPtfmSg8/s
         51    0.000E+00                                 F               1         First time derivative of HD RdtnPtfmSg9/s
         52    0.000E+00                                 F               1         First time derivative of HD RdtnPtfmSg10/s
         53    0.000E+00                                 F               1         First time derivative of HD RdtnPtfmSg11/s
         54    0.000E+00                                 F               1         First time derivative of HD RdtnPtfmSg12/s
         55    0.000E+00                                 F               1         First time derivative of HD RdtnPtfmSg13/s
         56    0.000E+00                                 F               1         First time derivative of HD RdtnPtfmSg14/s
         57    0.000E+00                                 F               1         First time derivative of HD RdtnPtfmSw1/s
         58    0.000E+00                                 F               1         First time derivative of HD RdtnPtfmSw2/s
         59    0.000E+00                                 F               1         First time derivative of HD RdtnPtfmSw3/s
         60    0.000E+00                                 F               1         First time derivative of HD RdtnPtfmSw4/s
         61    0.000E+00                                 F               1         First time derivative of HD RdtnPtfmSw5/s
         62    0.000E+00                                 F               1         First time derivative of HD RdtnPtfmSw6/s
         63    0.000E+00                                 F               1         First time derivative of HD RdtnPtfmSw7/s
         64    0.000E+00                                 F               1         First time derivative of HD RdtnPtfmSw8/s
         65    0.000E+00                                 F               1         First time derivative of HD RdtnPtfmSw9/s
         66    0.000E+00                                 F               1         First time derivative of HD RdtnPtfmSw10/s
         67    0.000E+00                                 F               1         First time derivative of HD RdtnPtfmSw11/s
         68    0.000E+00                                 F               1         First time derivative of HD RdtnPtfmSw12/s
         69    0.000E+00                                 F               1         First time derivative of HD RdtnPtfmSw13/s
         70    0.000E+00                                 F               1         First time derivative of HD RdtnPtfmSw14/s
         71    0.000E+00                                 F               1         First time derivative of HD RdtnPtfmHv1/s
         72    0.000E+00                                 F               1         First time derivative of HD RdtnPtfmHv2/s
         73    0.000E+00                                 F               1         First time derivative of HD RdtnPtfmHv3/s
         74    0.000E+00                                 F               1         First time derivative of HD RdtnPtfmHv4/s
         75    0.000E+00                                 F               1         First time derivative of HD RdtnPtfmHv5/s
         76    0.000E+00                                 F               1         First time derivative of HD RdtnPtfmHv6/s
         77    0.000E+00                                 F               1         First time derivative of HD RdtnPtfmR1/s
         78    0.000E+00                                 F               1         First time derivative of HD RdtnPtfmR2/s
         79    0.000E+00                                 F               1         First time derivative of HD RdtnPtfmR3/s
         80    0.000E+00                                 F               1         First time derivative of HD RdtnPtfmR4/s
         81    0.000E+00                                 F               1         First time derivative of HD RdtnPtfmR5/s
         82    0.000E+00                                 F               1         First time derivative of HD RdtnPtfmR6/s
         83    0.000E+00                                 F               1         First time derivative of HD RdtnPtfmR7/s
         84    0.000E+00                                 F               1         First time derivative of HD RdtnPtfmR8/s
         85    0.000E+00                                 F               1         First time derivative of HD RdtnPtfmR9/s
         86    0.000E+00                                 F               1         First time derivative of HD RdtnPtfmR10/s
         87    1.993E-05                                 F               1         First time derivative of HD RdtnPtfmP1/s
         88   -1.101E-04                                 F               1         First time derivative of HD RdtnPtfmP2/s
         89   -4.450E-06                                 F               1         First time derivative of HD RdtnPtfmP3/s
         90    1.985E-05                                 F               1         First time derivative of HD RdtnPtfmP4/s
         91    8.785E-07                                 F               1         First time derivative of HD RdtnPtfmP5/s
         92   -2.116E-06                                 F               1         First time derivative of HD RdtnPtfmP6/s
         93   -3.365E-06                                 F               1         First time derivative of HD RdtnPtfmP7/s
         94   -1.350E-05                                 F               1         First time derivative of HD RdtnPtfmP8/s
         95   -6.643E-05                                 F               1         First time derivative of HD RdtnPtfmP9/s
         96    1.750E-07                                 F               1         First time derivative of HD RdtnPtfmP10/s
         97    0.000E+00                                 F               1         First time derivative of HD RdtnPtfmY1/s
         98    0.000E+00                                 F               1         First time derivative of HD RdtnPtfmY2/s
         99    0.000E+00                                 F               1         First time derivative of HD RdtnPtfmY3/s
        100    0.000E+00                                 F               1         First time derivative of HD RdtnPtfmY4/s
        101    0.000E+00                                 F               1         First time derivative of HD RdtnPtfmY5/s
        102    0.000E+00                                 F               1         First time derivative of HD RdtnPtfmY6/s

Order of inputs:
     Column   Operating Point                     Rotating Frame? Derivative Order Description
   ---------- ---------------                     --------------- ---------------- -----------
          1    1.900E+01                                 F               0         IfW Extended input: horizontal wind speed (steady/uniform wind), m/s
          2    1.200E-01                                 F               0         IfW Extended input: vertical power-law shear exponent, -
          3    0.000E+00                                 F               0         IfW Extended input: propagation direction, rad
          4    2.881E-01                                 T               0         ED Blade 1 pitch command, rad
          5    2.881E-01                                 T               0         ED Blade 2 pitch command, rad
          6    2.881E-01                                 T               0         ED Blade 3 pitch command, rad
          7    0.000E+00                                 F               0         ED Yaw moment, Nm
          8    1.962E+07                                 F               0         ED Generator torque, Nm
          9    2.881E-01                                 F               0         ED Extended input: collective blade-pitch command, rad
         10    0.000E+00                                 F               0         HD Extended input: wave elevation at platform ref point, m

Order of outputs:
        Row   Operating Point                     Rotating Frame? Derivative Order Description
   ---------- ---------------                     --------------- ---------------- -----------
          1    1.900E+01                                 F               0         IfW Wind1VelX, (m/s)
          2    0.000E+00                                 F               0         IfW Wind1VelY, (m/s)
          3    0.000E+00                                 F               0         IfW Wind1VelZ, (m/s)
          4    1.496E+04                                 F               0         SrvD GenPwr, (kW)
          5    1.962E+04                                 F               0         SrvD GenTq, (kN-m)
          6    6.057E+01                                 F               0         ED Azimuth, (deg)
          7    1.651E+01                                 T               0         ED BldPitch1, (deg)
          8    7.540E+00                                 F               0         ED GenSpeed, (rpm)
          9    4.465E-01                                 T               0         ED IPDefl1, (m)
         10    4.084E+03                                 F               0         ED LSSGagMya, (kN-m)
         11   -1.216E+04                                 F               0         ED LSSGagMza, (kN-m)
         12    4.084E+03                                 F               0         ED LSSTipMya, (kN-m)
         13    1.260E+04                                 F               0         ED LSSTipMys, (kN-m)
         14   -1.216E+04                                 F               0         ED LSSTipMza, (kN-m)
         15   -2.419E+03                                 F               0         ED LSSTipMzs, (kN-m)
         16   -1.039E+02                                 F               0         ED LSShftFys, (kN)
         17   -3.683E+03                                 F               0         ED LSShftFzs, (kN)
         18    0.000E+00                                 F               0         ED NacYaw, (deg)
         19   -5.827E-02                                 F               0         ED NcIMUTAxs, (m/s^2)
         20   -2.549E-04                                 F               0         ED NcIMUTAys, (m/s^2)
         21   -1.260E-02                                 F               0         ED NcIMUTAzs, (m/s^2)
         22    1.780E-01                                 T               0         ED OoPDefl1, (m)
         23   -6.025E-02                                 F               0         ED PtfmHeave, (m)
         24    1.645E+00                                 F               0         ED PtfmPitch, (deg)
         25    5.473E-01                                 F               0         ED PtfmRoll, (deg)
         26    1.290E+01                                 F               0         ED PtfmSurge, (m)
         27   -5.560E-01                                 F               0         ED PtfmSway, (m)
         28    3.824E-01                                 F               0         ED PtfmYaw, (deg)
         29    6.900E+02                                 T               0         ED RootFxb1, (kN)
         30    3.960E+02                                 T               0         ED RootFxb2, (kN)
         31    4.121E+02                                 T               0         ED RootFxb3, (kN)
         32   -5.310E+02                                 T               0         ED RootFyb1, (kN)
         33    3.086E+01                                 T               0         ED RootFyb2, (kN)